# vtk DataFile Version 3.0
vtk output
ASCII
DATASET POLYDATA
POINTS 684 float
-42.068 -116.551 2.98379 -35.1023 -117.156 3.31901 -68.5164 -144.817 0.309852 
-69.793 -137.764 0.392059 -72.0204 -131.031 0.427592 -75.346 -125.524 0.226429 
-80.156 -121.485 0.504022 -86.4205 -119.533 1.7989 -93.0885 -119.692 2.90061 
-99.2523 -120.007 2.97948 -112.248 -119.855 2.68938 -119.009 -119.119 1.61215 
-125.764 -118.154 0.796626 -132.736 -117.319 1.41683 -139.678 -116.681 2.71954 
-68.976 -145.881 2.79598 -38.3836 -119.671 3.31721 -44.8769 -119.421 3.07731 
-51.369 -119.589 3.12452 -57.8529 -119.989 3.36018 -64.2398 -120.32 3.54173 
-70.5481 -119.674 3.46775 -82.1364 -115.084 3.33423 -88.3702 -113.999 3.32017 
-94.4827 -115.236 2.05444 -100.746 -117.317 0.826907 -107.076 -119.422 0.176635 
-113.772 -121.368 0.141157 -106.857 -37.8856 5.87388 -111.801 -32.9296 5.86952 
-116.744 -27.9733 5.86519 -32.2834 -74.8926 2.91728 -39.0342 -74.1475 3.09364 
-52.0056 -70.6307 4.22127 -56.6111 -66.1574 5.08727 -57.8214 -60.201 5.48605 
-54.5909 -55.1179 5.06897 -48.844 -53.1976 4.21425 -42.3871 -53.1908 3.61009 
-35.8993 -53.9116 3.11962 -150.113 -69.0979 0.532739 -143.472 -69.5139 0.429568 
-130.094 -69.4781 0.237909 -123.41 -68.8118 0.196003 -116.843 -67.3895 0.185139 
-110.562 -65.0294 0.189536 -104.455 -61.4294 0.190084 -98.8683 -57.0253 0.180578 
-93.5622 -52.0957 0.149405 -88.3385 -46.9902 0.0959609 -83.1731 -41.8254 0.0462277 
-78.0373 -36.5537 0.034899 -73.1354 -31.071 0.117707 -69.0164 -143.692 4.05286 
-69.9076 -137.052 3.93211 -71.2033 -130.556 3.06501 -73.8207 -124.646 1.79106 
-78.1951 -119.976 0.618828 -84.0188 -117.147 0.0911832 -90.7102 -115.747 0.0524518 
-97.5491 -115.62 0.0375762 -104.384 -116.593 0.0791433 -118.633 -119.283 0.115786 
-125.177 -122.182 0.216988 -130.794 -126.512 0.675955 -69.2959 -24.6651 0.161126 
-74.6452 -29.0767 0.0632347 -80.1108 -33.3367 0.0824771 -85.0145 -37.6488 0.192649 
-89.2351 -42.6646 0.227224 -93.0476 -48.0249 0.215255 -97.5887 -53.8899 0.159281 
-102.412 -59.5277 0.20959 -107.194 -64.7711 0.628049 -116.148 -75.6659 1.98456 
-119.866 -81.6338 2.59072 -122.849 -87.9769 2.98723 -125.299 -94.5616 3.22597 
-127.421 -101.24 3.36361 -129.43 -107.956 3.46654 -74.9181 -120.359 2.64701 
-81.7416 -120.065 3.09812 -88.671 -119.914 3.10102 -95.6042 -119.885 3.0028 
-102.55 -119.857 3.02831 -116.451 -119.712 3.10577 -123.393 -119.676 2.80597 
-130.443 -119.585 1.99253 -137.533 -119.203 0.915359 -144.635 -118.57 0.269678 
-47.194 -139.337 3.48192 -49.4262 -132.968 5.07317 -51.6683 -126.523 5.96897 
-53.7743 -120.282 5.96998 -55.8131 -114.018 5.90819 -57.8074 -107.688 5.84975 
-61.9009 -95.0617 5.78826 -64.3336 -88.3889 5.77442 -67.1207 -81.8602 5.76985 
-70.3893 -75.5661 5.78395 -74.1725 -69.1529 5.8301 -78.3285 -63.0097 5.8836 
-83.3178 -57.6048 5.92327 -89.4051 -54.0264 5.92539 -95.9556 -54.1445 5.87813 
-101.586 -58.4504 5.81212 -107.587 -62.7535 5.85146 -114.463 -65.6688 5.88156 
-121.659 -67.687 5.9194 -128.461 -68.785 5.96649 -135.14 -69.3287 5.98947 
-141.843 -69.3806 5.98137 -148.014 -69.0455 5.93531 -154.177 -68.5475 5.8065 
-151.678 -105.551 2.95248 -147.525 -100.982 3.32566 -143.303 -96.4704 3.56068 
-138.89 -92.1421 3.62406 -129.486 -83.8674 3.40984 -124.95 -79.3807 3.22905 
-120.839 -74.5031 3.06715 -117.11 -69.3131 2.97138 -113.382 -63.8445 2.9689 
-109.387 -58.5809 3.02535 -104.51 -53.3747 3.0632 -99.3666 -48.4184 3.06149 
-94.1625 -43.4607 3.03253 -88.9415 -38.1424 3.01582 -83.7258 -32.8186 3.01143 
-78.3793 -27.6302 3.0123 -72.5426 -22.6414 2.98811 -51.1779 -119.591 0.484129 
-57.0789 -116.348 0.373492 -63.402 -114.184 0.306319 -70.0435 -113.62 0.412915 
-76.7447 -113.892 0.808892 -83.3586 -113.992 1.45305 -89.9774 -113.996 2.06942 
-96.6052 -113.975 2.57597 -103.243 -113.976 2.93789 -109.886 -113.994 3.18311 
-116.706 -113.987 3.36551 -123.527 -113.955 3.3517 -137.349 -113.914 2.52893 
-144.301 -113.902 1.92835 -46.9846 -127.651 3.73543 -49.6265 -121.353 3.36521 
-52.9029 -115.509 3.64597 -56.5562 -109.968 4.38506 -60.0819 -104.36 5.20129 
-62.9816 -98.4606 5.73984 -65.1845 -92.2487 5.94714 -66.9917 -86.0114 5.94545 
-68.4231 -79.7571 5.7102 -69.7673 -73.5033 5.09259 -71.6058 -67.4206 4.22181 
-74.3435 -61.7072 3.38057 -78.0451 -56.5214 2.87472 -116.089 -27.4429 0.30508 
-110.508 -31.5343 0.150456 -104.784 -35.4399 0.115083 -99.6312 -39.374 0.0522373 
-94.7688 -43.6939 0.019622 -90.1347 -48.2647 0.0216072 -80.808 -58.0083 0.0856086 
-76.4549 -63.54 0.109807 -72.6427 -69.4576 0.125769 -69.3377 -75.7817 0.139091 
-66.4464 -82.3099 0.156695 -36.0175 -113.898 4.70332 -42.8279 -114.291 5.34343 
-49.3412 -115.113 5.76813 -55.6912 -116.307 5.91821 -61.9712 -117.418 5.94272 
-68.3034 -118.096 5.90887 -74.6686 -118.167 5.87174 -80.9915 -117.711 5.87308 
-87.3103 -117.165 5.90291 -93.8398 -116.989 5.94657 -100.187 -118.15 5.95962 
-110.401 -125.801 5.79061 -113.039 -131.765 5.67619 -114.083 -138.291 5.63837 
-114.149 -144.891 5.78172 -69.001 -148.541 0.334332 -68.8312 -141.534 0.237235 
-71.8063 -127.54 0.0707626 -75.9822 -121.931 0.058786 -80.6115 -117.519 0.586423 
-86.1896 -114.682 1.82489 -92.6465 -114.115 2.74348 -99.0315 -116.014 3.11794 
-105.074 -119.362 3.19458 -110.282 -123.875 3.08078 -114.191 -129.54 3.01019 
-116.552 -136.016 3.1708 -117.425 -142.918 3.75804 -73.1149 -66.5508 0.118676 
-70.385 -72.9965 0.0989788 -67.6618 -79.4443 0.0800648 -64.9757 -85.9069 0.0656084 
-62.4595 -92.393 0.0628603 -60.0047 -98.9036 0.0744296 -57.6 -105.324 0.0974066 
-48.5067 -114.275 0.115423 -41.2159 -114.527 0.110912 -33.8291 -114.156 0.23755 
-68.0039 -27.5155 5.84623 -73.4499 -32.0244 5.78069 -79.4091 -35.9104 5.80715 
-85.4112 -39.7368 5.84366 -90.8577 -43.9805 5.8381 -95.8977 -48.7074 5.82999 
-100.544 -53.8267 5.83038 -104.932 -59.307 5.85377 -109.032 -65.0065 5.89743 
-112.585 -70.7738 5.94326 -115.501 -76.8873 5.97616 -117.774 -83.2716 5.99118 
-120.922 -96.1282 5.95324 -122.903 -102.741 5.61732 -125.701 -108.981 4.90164 
-129.758 -114.385 4.01801 -135.198 -118.304 3.24536 -141.654 -120.001 2.96613 
-114.006 -143.262 0.484793 -111.621 -136.507 1.33205 -108.693 -130.095 2.76244 
-104.374 -124.839 3.99651 -92.0048 -119.474 4.80787 -85.1449 -119.503 4.34807 
-78.4686 -121.031 3.49797 -72.2344 -124.448 3.01466 -67.7458 -129.918 3.01301 
-65.8024 -136.667 3.02247 -64.9383 -143.744 3.08013 -110.159 -129.933 5.93124 
-112.44 -142.282 2.19525 -113.961 -148.653 0.739383 -28.5652 -73.3774 0.0175259 
-35.6259 -73.2516 0.118313 -42.6895 -73.1657 0.284845 -49.6086 -72.1355 0.389936 
-55.5924 -69.2094 0.40614 -59.3768 -63.9786 0.377782 -56.1076 -52.6456 0.111234 
-50.3358 -49.6109 0.0370635 -43.7563 -48.3764 0.0950668 -37.1007 -48.1159 0.43315 
-45.9913 -135.895 0.372537 -47.6799 -129.104 0.54757 -49.1333 -123.31 0.553857 
-51.0637 -117.468 1.08706 -53.2031 -111.723 1.94689 -55.2882 -105.897 2.70169 
-57.3526 -99.7399 3.03613 -59.5053 -93.5905 3.07278 -61.7903 -87.488 2.99196 
-64.1114 -81.4526 2.9646 -68.8356 -69.6405 2.84056 -71.9722 -64.2681 2.87402 
-76.5106 -59.7996 3.23531 -81.5364 -55.7551 3.61372 -85.5692 -50.9716 3.54054 
-85.3726 -45.4491 3.0221 -81.1965 -40.6355 2.81923 -76.0171 -35.9386 2.93637 
-70.8401 -31.2393 3.06695 -31.7019 -51.2796 5.96708 -38.2931 -51.3837 5.92796 
-50.8669 -53.2888 5.58493 -55.17 -57.3717 4.52624 -55.4658 -63.0171 2.86385 
-51.7081 -68.1381 1.25918 -45.5747 -71.09 0.359509 -38.6142 -72.0998 0.108993 
-31.5328 -71.8693 0.2351 -35.8946 -52.5543 0.107536 -43.4422 -52.4874 0.376494 
-50.6262 -54.0198 0.569772 -54.7632 -58.4119 0.529067 -53.9195 -64.2338 0.397846 
-42.0299 -69.6048 0.206399 -34.9847 -69.7283 0.136955 -27.9189 -69.4277 0.0600545 
-118.337 -19.7346 2.64299 -113.638 -24.725 2.30586 -109.02 -29.7984 2.14079 
-104.475 -34.9595 2.30199 -100.002 -40.158 2.83444 -95.5604 -45.3691 3.7079 
-91.1004 -50.5855 4.71937 -86.4626 -56.0616 5.47489 -77.6055 -67.6134 5.97484 
-73.2425 -73.5064 5.75739 -68.8332 -78.854 4.68455 -64.8287 -84.4732 3.48085 
-61.4659 -90.3468 3.08957 -58.4537 -96.4135 3.34399 -55.8568 -102.619 4.1721 
-53.6647 -108.94 5.28126 -135.313 -130.453 2.6101 -132.569 -123.864 2.50605 
-127.497 -118.751 2.68825 -121.023 -115.45 3.20056 -113.862 -113.991 4.12639 
-106.221 -113.922 5.46718 -98.9822 -113.922 5.80183 -91.7292 -113.957 5.76905 
-84.5957 -113.974 5.60382 -77.4618 -113.988 5.48014 -63.4303 -113.857 5.58597 
-85.8085 -43.2336 0.186676 -75.8987 -33.3408 0.0997086 -70.9257 -28.4104 0.0625565 
-117.22 -143.776 0.114706 -114.861 -136.934 0.158399 -111.383 -130.518 0.187558 
-107.05 -125.192 0.133696 -101.44 -121.183 0.0758991 -95.0328 -118.548 0.0349023 
-88.2275 -117.088 0.0339046 -81.6271 -116.44 0.135374 -68.4485 -116.506 0.615391 
-61.9079 -116.892 0.629913 -35.1483 -118.636 0.0417776 -41.3142 -118.399 0.290624 
-47.4194 -117.698 1.04316 -53.5913 -116.987 2.02121 -59.8037 -116.661 2.88858 
-66.0826 -116.789 3.36274 -72.5092 -117.055 3.30539 -79.2351 -117.167 2.5873 
-86.1007 -117.168 1.55499 -92.9927 -117.058 0.969159 -99.6182 -116.658 1.83049 
-106.09 -115.759 3.52493 -112.567 -114.69 5.07664 -119.208 -113.967 5.67699 
-132.169 -113.928 5.77788 -138.532 -113.913 5.6438 -144.893 -113.866 5.39612 
-114.292 -67.8266 0.218255 -111.057 -62.162 0.896311 -102.078 -52.9187 2.74534 
-96.5214 -49.3836 3.03299 -90.9302 -45.8775 3.05097 -85.5998 -41.4131 3.02169 
-80.6952 -36.4557 2.98316 -75.8703 -31.4738 2.92763 -70.7076 -26.8669 2.84722 
-65.0559 -22.8646 2.88324 -107.865 -33.9019 0.0859815 -117.962 -24.2132 0.519429 
-142.519 -117.916 5.71742 -136.331 -117.908 5.78186 -123.419 -117.234 5.92786 
-116.583 -117.273 5.93871 -109.759 -117.718 5.93393 -102.708 -118.405 5.92856 
-95.6588 -119.107 5.91773 -88.5036 -119.85 5.89958 -81.5015 -121.343 5.87658 
-75.0682 -124.202 5.85255 -69.8729 -128.795 5.8454 -66.9747 -134.941 5.8729 
-66.0896 -141.991 4.61474 -65.8785 -149.102 3.03468 -29.8037 -68.6175 5.93496 
-36.8125 -69.6357 5.90642 -43.5044 -71.1205 5.87507 -56.3337 -69.5915 5.76719 
[...]
POINT_DATA 684
FIELD FieldData 1
Color_Orient 4 684 unsigned_char
253 22 12 255 253 22 12 255 45 
250 2 255 62 247 2 255 105 232 
3 255 165 194 1 255 222 120 31 
255 248 34 46 255 253 9 23 255 
254 2 2 255 254 11 17 255 250 
31 35 255 252 33 3 255 251 26 
34 255 249 22 46 255 0 0 0 
0 254 9 9 255 254 1 3 255 
254 11 5 255 254 14 8 255 254 
6 2 255 244 71 2 255 242 77 
2 255 253 3 26 255 241 64 48 
255 239 79 35 255 243 75 12 255 
244 71 1 255 180 180 0 255 180 
180 0 255 180 180 0 255 253 27 
6 255 248 53 16 255 230 104 26 
255 123 221 26 255 45 250 0 255 
199 155 28 255 250 39 29 255 253 
13 21 255 252 28 19 255 254 15 
3 255 254 4 3 255 254 8 2 
255 251 39 1 255 244 72 0 255 
229 110 0 255 210 144 0 255 193 
165 0 255 184 175 1 255 181 179 
1 255 179 181 1 255 173 186 1 
255 169 190 2 255 33 252 4 255 
41 250 18 255 75 239 41 255 138 
208 48 255 203 149 33 255 241 81 
10 255 253 28 1 255 254 15 0 
255 251 43 0 255 246 66 1 255 
219 130 10 255 201 155 16 255 196 
162 3 255 198 159 1 255 196 162 
2 255 178 182 2 255 156 201 0 
255 152 204 1 255 160 197 0 255 
168 191 8 255 164 193 21 255 152 
202 23 255 121 223 18 255 98 234 
11 255 83 240 6 255 75 243 4 
255 73 244 3 255 254 10 16 255 
254 8 8 255 254 3 1 255 254 
1 1 255 254 2 1 255 254 2 
2 255 254 2 20 255 252 8 33 
255 252 18 30 255 252 22 22 255 
82 234 58 255 82 236 45 255 82 
240 17 255 80 242 1 255 77 242 
2 255 77 242 1 255 81 241 0 
255 93 237 0 255 108 230 0 255 
123 222 1 255 136 215 1 255 158 
199 1 255 198 160 0 255 245 67 
0 255 239 87 2 255 204 151 0 
255 222 124 1 255 240 84 1 255 
248 55 1 255 253 30 1 255 254 
11 0 255 254 5 1 255 254 17 
3 255 254 20 5 255 171 188 15 
255 172 187 12 255 178 182 6 255 
188 171 2 255 188 172 5 255 172 
187 6 255 156 201 5 255 146 208 
1 255 148 206 1 255 164 194 1 
255 179 181 0 255 184 176 0 255 
181 179 0 255 178 182 0 255 180 
179 0 255 188 171 0 255 193 165 
0 255 223 122 4 255 233 103 3 
255 249 52 0 255 254 5 9 255 
254 7 19 255 253 2 24 255 254 
0 21 255 254 0 16 255 254 0 
11 255 254 0 8 255 254 0 3 
255 254 0 10 255 254 0 17 255 
254 0 21 255 98 234 13 255 111 
229 1 255 132 217 19 255 137 212 
29 255 123 221 26 255 98 234 14 
255 78 242 4 255 63 246 4 255 
55 248 16 255 63 245 29 255 91 
235 34 255 128 218 26 255 147 206 
20 255 205 150 5 255 208 147 3 
255 206 149 1 255 196 162 1 255 
186 174 0 255 178 182 0 255 170 
189 1 255 148 207 0 255 128 220 
0 255 110 229 0 255 103 233 0 
255 253 14 23 255 253 23 20 255 
251 39 11 255 250 45 3 255 252 
35 0 255 254 15 1 255 254 7 
0 255 254 20 0 255 254 14 1 
255 254 19 1 255 225 119 2 255 
175 185 3 255 72 244 2 255 21 
254 2 255 2 254 5 255 6 254 
3 255 33 252 3 255 87 239 2 
255 168 191 9 255 205 146 35 255 
241 68 43 255 252 26 25 255 234 
99 8 255 209 146 0 255 170 189 
3 255 117 226 1 255 59 247 13 
255 31 252 21 255 99 234 0 255 
99 234 0 255 98 235 0 255 95 
236 0 255 91 238 0 255 89 238 
0 255 152 204 0 255 222 124 0 
255 254 2 2 255 254 12 4 255 
196 162 2 255 205 151 0 255 214 
138 1 255 208 146 0 255 193 165 
0 255 178 181 0 255 165 194 0 
255 154 203 1 255 141 212 1 255 
121 223 1 255 97 235 0 255 69 
245 0 255 64 246 4 255 88 238 
19 255 128 218 29 255 180 177 31 
255 229 108 20 255 246 64 10 255 
84 238 29 255 94 233 40 255 132 
212 48 255 213 136 26 255 245 68 
4 255 252 29 24 255 237 90 24 
255 196 162 8 255 118 225 0 255 
50 249 1 255 30 253 2 255 44 
240 72 255 48 241 66 255 57 242 
55 255 254 4 3 255 254 3 4 
255 254 20 4 255 243 74 2 255 
195 163 0 255 7 254 4 255 135 
215 5 255 241 83 0 255 253 28 
7 255 254 9 12 255 61 247 6 
255 61 247 3 255 71 244 11 255 
83 239 28 255 86 237 33 255 83 
240 21 255 82 241 7 255 86 239 
0 255 90 238 2 255 93 237 2 
255 106 231 1 255 156 200 8 255 
190 169 14 255 182 177 6 255 88 
238 13 255 99 234 16 255 178 181 
1 255 188 171 4 255 188 171 4 
255 254 4 1 255 253 26 5 255 
239 85 19 255 105 223 62 255 74 
233 70 255 193 158 49 255 243 73 
21 255 254 14 2 255 254 8 4 
255 254 2 9 255 253 25 7 255 
225 118 3 255 78 242 4 255 191 
168 4 255 244 71 3 255 254 3 
2 255 254 10 2 255 174 185 12 
255 173 186 9 255 170 189 0 255 
167 192 12 255 165 192 26 255 164 
192 34 255 163 192 31 255 158 199 
14 255 154 203 3 255 156 200 22 
255 153 199 41 255 136 213 29 255 
120 224 2 255 105 231 20 255 90 
235 36 255 82 237 41 255 98 235 
3 255 141 212 1 255 205 149 12 
255 239 83 25 255 250 25 38 255 
253 1 28 255 254 0 5 255 254 
0 3 255 254 0 5 255 254 1 
0 255 254 2 1 255 180 180 1 
255 180 179 1 255 181 179 1 255 
83 241 1 255 102 233 1 255 141 
212 0 255 185 174 2 255 223 123 
1 255 243 75 0 255 251 39 1 
255 254 7 7 255 254 5 6 255 
254 15 0 255 254 9 10 255 253 
19 20 255 250 28 35 255 251 21 
37 255 253 4 27 255 254 7 8 
255 254 7 15 255 252 2 32 255 
253 2 29 255 254 9 5 255 249 
24 48 255 244 37 61 255 249 34 
40 255 254 9 9 255 254 0 0 
255 254 1 7 255 254 1 9 255 
125 220 26 255 160 195 33 255 190 
167 27 255 215 136 5 255 205 150 
0 255 187 172 1 255 178 182 1 
255 183 176 2 255 199 158 0 255 
208 147 1 255 183 176 7 255 183 
176 7 255 254 0 2 255 254 9 
2 255 254 8 2 255 254 9 0 
255 254 20 0 255 253 25 0 255 
253 25 0 255 251 39 0 255 242 
78 0 255 214 137 0 255 153 203 
0 255 69 244 22 255 19 249 49 
255 7 248 55 255 252 36 1 255 
250 45 1 255 254 0 1 255 237 
92 2 255 87 239 0 255 48 250 
2 255 165 193 7 255 234 94 36 
255 248 13 55 255 247 16 58 255 
0 0 0 0 85 239 12 255 106 
230 21 255 175 179 42 255 224 115 
34 255 251 40 13 255 251 40 0 
255 228 113 5 255 200 156 13 255 
175 183 23 255 149 204 28 255 120 
223 27 255 104 231 26 255 185 175 
1 255 186 173 0 255 186 173 0 
255 176 184 0 255 158 200 1 255 
137 214 4 255 114 227 6 255 97 
235 4 255 88 239 1 255 84 240 
0 255 83 241 1 255 82 241 2 
255 100 234 0 255 126 221 1 255 
161 197 11 255 170 188 19 255 45 
250 1 255 47 250 0 255 51 249 
5 255 248 53 21 255 249 50 22 
255 250 40 22 255 253 21 20 255 
254 8 13 255 251 44 3 255 249 
51 1 255 254 19 0 255 254 1 
0 255 254 4 0 255 254 8 0 
255 254 2 0 255 254 19 0 255 
252 37 0 255 252 34 1 255 254 
12 1 255 254 6 1 255 254 1 
3 255 254 4 14 255 254 5 18 
255 254 4 12 255 254 1 2 255 
254 1 18 255 254 2 21 255 254 
0 8 255 254 1 1 255 254 1 
1 255 254 1 2 255 254 4 4 
255 254 4 4 255 254 0 0 255 
254 0 6 255 254 1 10 255 254 
1 4 255 254 1 4 255 248 58 
5 255 249 49 15 255 253 12 28 
255 230 106 26 255 170 188 15 255 
25 253 2 255 96 235 1 255 210 
142 14 255 249 40 35 255 251 8 
40 255 251 22 33 255 197 160 1 
255 196 162 1 255 187 173 0 255 
179 180 0 255 179 180 0 255 181 
178 2 255 183 177 4 255 190 169 
2 255 203 153 0 255 210 144 2 
255 44 251 4 255 63 246 3 255 
107 231 0 255 151 205 8 255 195 
160 33 255 234 89 45 255 252 26 
22 255 253 25 4 255 238 89 3 
255 165 193 9 255 101 233 13 255 
29 252 12 255 17 254 7 255 251 
42 2 255 242 77 9 255 222 122 
19 255 185 172 28 255 159 198 4 
255 161 197 5 255 170 189 3 255 
172 187 0 255 172 187 2 255 188 
170 21 255 202 148 46 255 206 138 
58 255 209 136 50 255 211 137 40 
255 172 187 17 255 171 187 18 255 
170 187 22 255 173 185 28 255 175 
184 16 255 175 184 5 255 174 185 
9 255 169 188 26 255 154 199 36 
255 116 224 30 255 30 252 14 255 
89 238 2 255 164 194 14 255 190 
168 20 255 184 175 13 255 173 186 
7 255 100 234 0 255 125 222 0 
255 198 159 5 255 248 56 14 255 
254 6 20 255 254 1 22 255 254 
2 16 255 254 11 7 255 248 57 
1 255 220 128 1 255 159 198 1 
255 66 246 1 255 25 253 1 255 
5 254 0 255 254 0 0 255 254 
17 0 255 237 91 2 255 192 166 
18 255 94 232 42 255 65 243 37 
255 200 156 17 255 244 49 50 255 
250 8 46 255 117 224 25 255 110 
227 31 255 107 228 31 255 117 226 
6 255 121 222 23 255 118 222 39 
255 112 225 41 255 104 230 29 255 
101 233 13 255 100 234 2 255 103 
233 1 255 106 231 6 255 126 220 
18 255 187 169 30 255 246 56 32 
255 246 63 16 255 226 117 8 255 
229 111 10 255 238 89 13 255 99 
234 8 255 98 235 5 255 92 237 
0 255 85 240 3 255 79 241 13 
255 78 241 20 255 95 236 3 255 
96 236 0 255 94 236 10 255 86 
239 13 255 77 242 1 255 79 241 
17 255 95 236 8 255 112 227 19 
255 119 222 38 255 115 223 40 255 
105 231 21 255 98 235 7 255 179 
180 0 255 185 175 0 255 190 170 
0 255 254 18 2 255 254 16 0 
255 254 6 5 255 254 15 14 255 
248 52 23 255 232 100 29 255 209 
142 27 255 190 168 17 255 184 176 
0 255 190 168 17 255 191 165 28 
255 181 177 27 255 168 191 17 255 
161 196 6 255 162 196 0 255 197 
159 24 255 194 163 22 255 185 173 
17 255 180 180 8 255 192 167 3 
255 213 139 1 255 118 224 27 255 
122 222 25 255 143 209 18 255 173 
186 14 255 243 75 9 255 244 72 
0 255 185 174 12 255 133 216 22 
255 109 227 33 255 102 231 32 255 
98 233 26 255 9 254 1 255 57 
248 13 255 111 226 37 255 160 187 
63 255 255 255 255 255 165 193 1 
255 162 196 1 255 179 180 1 255 
239 88 0 255 237 92 1 255 187 
172 0 255 180 180 1 255 181 179 
1 255 221 127 1 255 193 165 2 
255 92 237 0 255 57 248 1 255 
190 169 8 255 193 166 7 255 198 
155 36 255 185 169 42 255 101 232 
21 255 57 248 2 255 136 215 0 
255 151 204 0 255 136 215 0 255 
120 224 0 255 107 231 0 255 95 
236 0 255 83 240 7 255 80 241 
10 255 125 218 37 255 142 209 27 
255 176 183 4 255 182 178 0 255 
184 176 0 255 185 175 0 255 184 
175 0 255 184 175 0 255 184 175 
0 255 198 159 6 255 212 136 35 
255 217 123 48 255 79 242 4 255 
82 241 6 255 124 222 12 255 143 
210 15 255 81 238 38 255 81 238 
38 255 0 0 0 0 190 169 1 
255 191 167 18 255 195 161 30 255 
200 152 38 255 253 25 4 255 254 
1 1 255 254 14 0 255 252 36 
7 255 242 78 15 255 195 162 25 
255 117 226 12 255 95 236 5 255 
49 250 2 255 49 250 2 255 159 
198 0 255 163 195 0 255 187 173 
1 255 202 154 2 255 254 17 3 
255 254 17 3 255 200 156 15 255 
190 168 24 255 183 175 25 255 181 
178 16 255 0 0 0 0 0 0 
0 0 132 216 19 255 132 216 19 
255 0 0 0 0 0 0 0 0 

