# vtk DataFile Version 3.0
vtk output
ASCII
DATASET POLYDATA
POINTS 1100 float
1 11.1561 3.29687 1.28 11.1561 3.29687 2.04 11.1561 3.29687 
3.16 11.1561 3.29687 4.52 11.1561 3.29687 6 11.1561 3.29687 
7.48 11.1561 3.29687 8.84 11.1561 3.29687 9.96 11.1561 3.29687 
10.72 11.1561 3.29687 11 11.1561 3.29687 1 11.6881 4.10078 
1.28 11.6881 4.10078 2.04 11.6881 4.10078 3.16 11.6881 4.10078 
4.52 11.6881 4.10078 6 11.6881 4.10078 7.48 11.6881 4.10078 
8.84 11.6881 4.10078 9.96 11.6881 4.10078 10.72 11.6881 4.10078 
11 11.6881 4.10078 1 11.3286 4.14452 1.28 11.3286 4.14452 
2.04 11.3286 4.14452 3.16 11.3286 4.14452 4.52 11.3286 4.14452 
6 11.3286 4.14452 7.48 11.3286 4.14452 8.84 11.3286 4.14452 
9.96 11.3286 4.14452 10.72 11.3286 4.14452 11 11.3286 4.14452 
1 11.1435 4.11032 1.28 11.1435 4.11032 2.04 11.1435 4.11032 
3.16 11.1435 4.11032 4.52 11.1435 4.11032 6 11.1435 4.11032 
7.48 11.1435 4.11032 8.84 11.1435 4.11032 9.96 11.1435 4.11032 
10.72 11.1435 4.11032 11 11.1435 4.11032 1 10.7559 3.39509 
1.28 10.7559 3.39509 2.04 10.7559 3.39509 3.16 10.7559 3.39509 
4.52 10.7559 3.39509 6 10.7559 3.39509 7.48 10.7559 3.39509 
8.84 10.7559 3.39509 9.96 10.7559 3.39509 10.72 10.7559 3.39509 
11 10.7559 3.39509 1 11.4665 2.63031 1.28 11.4665 2.63031 
2.04 11.4665 2.63031 3.16 11.4665 2.63031 4.52 11.4665 2.63031 
6 11.4665 2.63031 7.48 11.4665 2.63031 8.84 11.4665 2.63031 
9.96 11.4665 2.63031 10.72 11.4665 2.63031 11 11.4665 2.63031 
1 10.8004 2.35262 1.28 10.8004 2.35262 2.04 10.8004 2.35262 
3.16 10.8004 2.35262 4.52 10.8004 2.35262 6 10.8004 2.35262 
7.48 10.8004 2.35262 8.84 10.8004 2.35262 9.96 10.8004 2.35262 
10.72 10.8004 2.35262 11 10.8004 2.35262 1 10.6273 2.92859 
1.28 10.6273 2.92859 2.04 10.6273 2.92859 3.16 10.6273 2.92859 
4.52 10.6273 2.92859 6 10.6273 2.92859 7.48 10.6273 2.92859 
8.84 10.6273 2.92859 9.96 10.6273 2.92859 10.72 10.6273 2.92859 
11 10.6273 2.92859 1 11.9328 3.99815 1.28 11.9328 3.99815 
2.04 11.9328 3.99815 3.16 11.9328 3.99815 4.52 11.9328 3.99815 
6 11.9328 3.99815 7.48 11.9328 3.99815 8.84 11.9328 3.99815 
9.96 11.9328 3.99815 10.72 11.9328 3.99815 11 11.9328 3.99815 
1 11.0924 2.93598 1.28 11.0924 2.93598 2.04 11.0924 2.93598 
3.16 11.0924 2.93598 4.52 11.0924 2.93598 6 11.0924 2.93598 
7.48 11.0924 2.93598 8.84 11.0924 2.93598 9.96 11.0924 2.93598 
10.72 11.0924 2.93598 11 11.0924 2.93598 1 11.2176 2.65718 
1.28 11.2176 2.65718 2.04 11.2176 2.65718 3.16 11.2176 2.65718 
4.52 11.2176 2.65718 6 11.2176 2.65718 7.48 11.2176 2.65718 
8.84 11.2176 2.65718 9.96 11.2176 2.65718 10.72 11.2176 2.65718 
11 11.2176 2.65718 1 9.6284 2.48008 1.28 9.6284 2.48008 
2.04 9.6284 2.48008 3.16 9.6284 2.48008 4.52 9.6284 2.48008 
6 9.6284 2.48008 7.48 9.6284 2.48008 8.84 9.6284 2.48008 
9.96 9.6284 2.48008 10.72 9.6284 2.48008 11 9.6284 2.48008 
1 9.67986 3.47377 1.28 9.67986 3.47377 2.04 9.67986 3.47377 
3.16 9.67986 3.47377 4.52 9.67986 3.47377 6 9.67986 3.47377 
7.48 9.67986 3.47377 8.84 9.67986 3.47377 9.96 9.67986 3.47377 
10.72 9.67986 3.47377 11 9.67986 3.47377 1 9.46592 2.57871 
1.28 9.46592 2.57871 2.04 9.46592 2.57871 3.16 9.46592 2.57871 
4.52 9.46592 2.57871 6 9.46592 2.57871 7.48 9.46592 2.57871 
8.84 9.46592 2.57871 9.96 9.46592 2.57871 10.72 9.46592 2.57871 
11 9.46592 2.57871 1 11.8894 1.85004 1.28 11.8894 1.85004 
2.04 11.8894 1.85004 3.16 11.8894 1.85004 4.52 11.8894 1.85004 
6 11.8894 1.85004 7.48 11.8894 1.85004 8.84 11.8894 1.85004 
9.96 11.8894 1.85004 10.72 11.8894 1.85004 11 11.8894 1.85004 
1 12.5304 2.91561 1.28 12.5304 2.91561 2.04 12.5304 2.91561 
3.16 12.5304 2.91561 4.52 12.5304 2.91561 6 12.5304 2.91561 
7.48 12.5304 2.91561 8.84 12.5304 2.91561 9.96 12.5304 2.91561 
10.72 12.5304 2.91561 11 12.5304 2.91561 1 11.9565 3.96215 
1.28 11.9565 3.96215 2.04 11.9565 3.96215 3.16 11.9565 3.96215 
4.52 11.9565 3.96215 6 11.9565 3.96215 7.48 11.9565 3.96215 
8.84 11.9565 3.96215 9.96 11.9565 3.96215 10.72 11.9565 3.96215 
11 11.9565 3.96215 1 10.8768 3.06548 1.28 10.8768 3.06548 
2.04 10.8768 3.06548 3.16 10.8768 3.06548 4.52 10.8768 3.06548 
6 10.8768 3.06548 7.48 10.8768 3.06548 8.84 10.8768 3.06548 
9.96 10.8768 3.06548 10.72 10.8768 3.06548 11 10.8768 3.06548 
1 11.897 3.57196 1.28 11.897 3.57196 2.04 11.897 3.57196 
3.16 11.897 3.57196 4.52 11.897 3.57196 6 11.897 3.57196 
7.48 11.897 3.57196 8.84 11.897 3.57196 9.96 11.897 3.57196 
10.72 11.897 3.57196 11 11.897 3.57196 1 9.77945 3.70546 
1.28 9.77945 3.70546 2.04 9.77945 3.70546 3.16 9.77945 3.70546 
4.52 9.77945 3.70546 6 9.77945 3.70546 7.48 9.77945 3.70546 
8.84 9.77945 3.70546 9.96 9.77945 3.70546 10.72 9.77945 3.70546 
11 9.77945 3.70546 1 11.4474 3.26226 1.28 11.4474 3.26226 
2.04 11.4474 3.26226 3.16 11.4474 3.26226 4.52 11.4474 3.26226 
6 11.4474 3.26226 7.48 11.4474 3.26226 8.84 11.4474 3.26226 
9.96 11.4474 3.26226 10.72 11.4474 3.26226 11 11.4474 3.26226 
1 9.85964 3.1195 1.28 9.85964 3.1195 2.04 9.85964 3.1195 
3.16 9.85964 3.1195 4.52 9.85964 3.1195 6 9.85964 3.1195 
7.48 9.85964 3.1195 8.84 9.85964 3.1195 9.96 9.85964 3.1195 
10.72 9.85964 3.1195 11 9.85964 3.1195 1 11.0699 1.7399 
1.28 11.0699 1.7399 2.04 11.0699 1.7399 3.16 11.0699 1.7399 
4.52 11.0699 1.7399 6 11.0699 1.7399 7.48 11.0699 1.7399 
8.84 11.0699 1.7399 9.96 11.0699 1.7399 10.72 11.0699 1.7399 
11 11.0699 1.7399 1 10.7271 2.91559 1.28 10.7271 2.91559 
2.04 10.7271 2.91559 3.16 10.7271 2.91559 4.52 10.7271 2.91559 
6 10.7271 2.91559 7.48 10.7271 2.91559 8.84 10.7271 2.91559 
9.96 10.7271 2.91559 10.72 10.7271 2.91559 11 10.7271 2.91559 
1 10.2472 1.99706 1.28 10.2472 1.99706 2.04 10.2472 1.99706 
3.16 10.2472 1.99706 4.52 10.2472 1.99706 6 10.2472 1.99706 
7.48 10.2472 1.99706 8.84 10.2472 1.99706 9.96 10.2472 1.99706 
10.72 10.2472 1.99706 11 10.2472 1.99706 1 11.8769 3.75754 
1.28 11.8769 3.75754 2.04 11.8769 3.75754 3.16 11.8769 3.75754 
4.52 11.8769 3.75754 6 11.8769 3.75754 7.48 11.8769 3.75754 
8.84 11.8769 3.75754 9.96 11.8769 3.75754 10.72 11.8769 3.75754 
11 11.8769 3.75754 1 10.8598 2.09368 1.28 10.8598 2.09368 
2.04 10.8598 2.09368 3.16 10.8598 2.09368 4.52 10.8598 2.09368 
6 10.8598 2.09368 7.48 10.8598 2.09368 8.84 10.8598 2.09368 
9.96 10.8598 2.09368 10.72 10.8598 2.09368 11 10.8598 2.09368 
1 11.2188 1.83362 1.28 11.2188 1.83362 2.04 11.2188 1.83362 
3.16 11.2188 1.83362 4.52 11.2188 1.83362 6 11.2188 1.83362 
7.48 11.2188 1.83362 8.84 11.2188 1.83362 9.96 11.2188 1.83362 
10.72 11.2188 1.83362 11 11.2188 1.83362 1 11.3761 1.87985 
1.28 11.3761 1.87985 2.04 11.3761 1.87985 3.16 11.3761 1.87985 
4.52 11.3761 1.87985 6 11.3761 1.87985 7.48 11.3761 1.87985 
8.84 11.3761 1.87985 9.96 11.3761 1.87985 10.72 11.3761 1.87985 
11 11.3761 1.87985 1 11.3584 2.11213 1.28 11.3584 2.11213 
2.04 11.3584 2.11213 3.16 11.3584 2.11213 4.52 11.3584 2.11213 
6 11.3584 2.11213 7.48 11.3584 2.11213 8.84 11.3584 2.11213 
9.96 11.3584 2.11213 10.72 11.3584 2.11213 11 11.3584 2.11213 
1 11.3739 2.63705 1.28 11.3739 2.63705 2.04 11.3739 2.63705 
3.16 11.3739 2.63705 4.52 11.3739 2.63705 6 11.3739 2.63705 
7.48 11.3739 2.63705 8.84 11.3739 2.63705 9.96 11.3739 2.63705 
10.72 11.3739 2.63705 11 11.3739 2.63705 1 11.5814 2.83997 
1.28 11.5814 2.83997 2.04 11.5814 2.83997 3.16 11.5814 2.83997 
4.52 11.5814 2.83997 6 11.5814 2.83997 7.48 11.5814 2.83997 
8.84 11.5814 2.83997 9.96 11.5814 2.83997 10.72 11.5814 2.83997 
11 11.5814 2.83997 1 10.5508 3.36152 1.28 10.5508 3.36152 
2.04 10.5508 3.36152 3.16 10.5508 3.36152 4.52 10.5508 3.36152 
6 10.5508 3.36152 7.48 10.5508 3.36152 8.84 10.5508 3.36152 
9.96 10.5508 3.36152 10.72 10.5508 3.36152 11 10.5508 3.36152 
1 10.7987 4.28649 1.28 10.7987 4.28649 2.04 10.7987 4.28649 
3.16 10.7987 4.28649 4.52 10.7987 4.28649 6 10.7987 4.28649 
7.48 10.7987 4.28649 8.84 10.7987 4.28649 9.96 10.7987 4.28649 
10.72 10.7987 4.28649 11 10.7987 4.28649 1 11.6319 1.71871 
1.28 11.6319 1.71871 2.04 11.6319 1.71871 3.16 11.6319 1.71871 
4.52 11.6319 1.71871 6 11.6319 1.71871 7.48 11.6319 1.71871 
8.84 11.6319 1.71871 9.96 11.6319 1.71871 10.72 11.6319 1.71871 
11 11.6319 1.71871 1 11.5332 3.48966 1.28 11.5332 3.48966 
2.04 11.5332 3.48966 3.16 11.5332 3.48966 4.52 11.5332 3.48966 
6 11.5332 3.48966 7.48 11.5332 3.48966 8.84 11.5332 3.48966 
9.96 11.5332 3.48966 10.72 11.5332 3.48966 11 11.5332 3.48966 
1 11.5456 1.94775 1.28 11.5456 1.94775 2.04 11.5456 1.94775 
3.16 11.5456 1.94775 4.52 11.5456 1.94775 6 11.5456 1.94775 
7.48 11.5456 1.94775 8.84 11.5456 1.94775 9.96 11.5456 1.94775 
10.72 11.5456 1.94775 11 11.5456 1.94775 1 10.074 2.54645 
1.28 10.074 2.54645 2.04 10.074 2.54645 3.16 10.074 2.54645 
4.52 10.074 2.54645 6 10.074 2.54645 7.48 10.074 2.54645 
8.84 10.074 2.54645 9.96 10.074 2.54645 10.72 10.074 2.54645 
11 10.074 2.54645 1 9.81351 3.80156 1.28 9.81351 3.80156 
2.04 9.81351 3.80156 3.16 9.81351 3.80156 4.52 9.81351 3.80156 
6 9.81351 3.80156 7.48 9.81351 3.80156 8.84 9.81351 3.80156 
9.96 9.81351 3.80156 10.72 9.81351 3.80156 11 9.81351 3.80156 
1 10.4098 3.34478 1.28 10.4098 3.34478 2.04 10.4098 3.34478 
3.16 10.4098 3.34478 4.52 10.4098 3.34478 6 10.4098 3.34478 
7.48 10.4098 3.34478 8.84 10.4098 3.34478 9.96 10.4098 3.34478 
10.72 10.4098 3.34478 11 10.4098 3.34478 1 10.5642 2.4406 
1.28 10.5642 2.4406 2.04 10.5642 2.4406 3.16 10.5642 2.4406 
4.52 10.5642 2.4406 6 10.5642 2.4406 7.48 10.5642 2.4406 
8.84 10.5642 2.4406 9.96 10.5642 2.4406 10.72 10.5642 2.4406 
11 10.5642 2.4406 1 11.2245 1.52413 1.28 11.2245 1.52413 
2.04 11.2245 1.52413 3.16 11.2245 1.52413 4.52 11.2245 1.52413 
6 11.2245 1.52413 7.48 11.2245 1.52413 8.84 11.2245 1.52413 
9.96 11.2245 1.52413 10.72 11.2245 1.52413 11 11.2245 1.52413 
1 10.8037 3.42934 1.28 10.8037 3.42934 2.04 10.8037 3.42934 
3.16 10.8037 3.42934 4.52 10.8037 3.42934 6 10.8037 3.42934 
7.48 10.8037 3.42934 8.84 10.8037 3.42934 9.96 10.8037 3.42934 
10.72 10.8037 3.42934 11 10.8037 3.42934 1 9.72755 3.48854 
1.28 9.72755 3.48854 2.04 9.72755 3.48854 3.16 9.72755 3.48854 
4.52 9.72755 3.48854 6 9.72755 3.48854 7.48 9.72755 3.48854 
[...]
POINT_DATA 1100
FIELD FieldData 1
Color_Orient 4 1100 unsigned_char
255 0 0 255 255 0 0 255 255 
0 0 255 255 0 0 255 255 0 
0 255 255 0 0 255 255 0 0 
255 255 0 0 255 255 0 0 255 
255 0 0 255 255 0 0 255 255 
0 0 255 255 0 0 255 255 0 
0 255 255 0 0 255 255 0 0 
255 255 0 0 255 255 0 0 255 
255 0 0 255 255 0 0 255 255 
0 0 255 255 0 0 255 255 0 
0 255 255 0 0 255 255 0 0 
255 255 0 0 255 255 0 0 255 
255 0 0 255 255 0 0 255 255 
0 0 255 255 0 0 255 255 0 
0 255 255 0 0 255 255 0 0 
255 255 0 0 255 255 0 0 255 
255 0 0 255 254 0 0 255 254 
0 0 255 255 0 0 255 255 0 
0 255 255 0 0 255 255 0 0 
255 255 0 0 255 255 0 0 255 
255 0 0 255 255 0 0 255 255 
0 0 255 255 0 0 255 254 0 
0 255 254 0 0 255 255 0 0 
255 255 0 0 255 255 0 0 255 
255 0 0 255 255 0 0 255 255 
0 0 255 255 0 0 255 255 0 
0 255 255 0 0 255 255 0 0 
255 255 0 0 255 255 0 0 255 
255 0 0 255 255 0 0 255 255 
0 0 255 255 0 0 255 255 0 
0 255 255 0 0 255 255 0 0 
255 254 0 0 255 254 0 0 255 
254 0 0 255 255 0 0 255 255 
0 0 255 255 0 0 255 255 0 
0 255 255 0 0 255 255 0 0 
255 255 0 0 255 255 0 0 255 
255 0 0 255 255 0 0 255 255 
0 0 255 255 0 0 255 255 0 
0 255 255 0 0 255 255 0 0 
255 255 0 0 255 255 0 0 255 
255 0 0 255 254 0 0 255 254 
0 0 255 255 0 0 255 254 0 
0 255 254 0 0 255 255 0 0 
255 255 0 0 255 255 0 0 255 
255 0 0 255 255 0 0 255 255 
0 0 255 255 0 0 255 255 0 
0 255 255 0 0 255 255 0 0 
255 255 0 0 255 255 0 0 255 
255 0 0 255 255 0 0 255 255 
0 0 255 255 0 0 255 255 0 
0 255 255 0 0 255 255 0 0 
255 255 0 0 255 255 0 0 255 
255 0 0 255 255 0 0 255 255 
0 0 255 255 0 0 255 255 0 
0 255 255 0 0 255 255 0 0 
255 255 0 0 255 255 0 0 255 
255 0 0 255 255 0 0 255 255 
0 0 255 255 0 0 255 255 0 
0 255 255 0 0 255 255 0 0 
255 255 0 0 255 255 0 0 255 
255 0 0 255 255 0 0 255 254 
0 0 255 254 0 0 255 255 0 
0 255 255 0 0 255 255 0 0 
255 255 0 0 255 255 0 0 255 
255 0 0 255 255 0 0 255 255 
0 0 255 254 0 0 255 254 0 
0 255 255 0 0 255 255 0 0 
255 255 0 0 255 255 0 0 255 
255 0 0 255 255 0 0 255 255 
0 0 255 255 0 0 255 255 0 
0 255 255 0 0 255 255 0 0 
255 255 0 0 255 255 0 0 255 
255 0 0 255 255 0 0 255 255 
0 0 255 255 0 0 255 255 0 
0 255 255 0 0 255 255 0 0 
255 255 0 0 255 255 0 0 255 
255 0 0 255 255 0 0 255 255 
0 0 255 255 0 0 255 255 0 
0 255 255 0 0 255 255 0 0 
255 255 0 0 255 255 0 0 255 
254 0 0 255 254 0 0 255 255 
0 0 255 255 0 0 255 255 0 
0 255 255 0 0 255 255 0 0 
255 255 0 0 255 255 0 0 255 
255 0 0 255 255 0 0 255 255 
0 0 255 255 0 0 255 255 0 
0 255 255 0 0 255 255 0 0 
255 255 0 0 255 255 0 0 255 
255 0 0 255 255 0 0 255 255 
0 0 255 255 0 0 255 255 0 
0 255 254 0 0 255 254 0 0 
255 255 0 0 255 255 0 0 255 
255 0 0 255 255 0 0 255 255 
0 0 255 255 0 0 255 255 0 
0 255 255 0 0 255 255 0 0 
255 255 0 0 255 255 0 0 255 
255 0 0 255 255 0 0 255 255 
0 0 255 255 0 0 255 255 0 
0 255 255 0 0 255 255 0 0 
255 255 0 0 255 255 0 0 255 
255 0 0 255 255 0 0 255 255 
0 0 255 255 0 0 255 255 0 
0 255 255 0 0 255 255 0 0 
255 255 0 0 255 255 0 0 255 
255 0 0 255 255 0 0 255 255 
0 0 255 255 0 0 255 255 0 
0 255 255 0 0 255 255 0 0 
255 255 0 0 255 255 0 0 255 
255 0 0 255 255 0 0 255 255 
0 0 255 255 0 0 255 255 0 
0 255 255 0 0 255 255 0 0 
255 255 0 0 255 255 0 0 255 
255 0 0 255 255 0 0 255 255 
0 0 255 255 0 0 255 255 0 
0 255 255 0 0 255 255 0 0 
255 255 0 0 255 255 0 0 255 
255 0 0 255 255 0 0 255 255 
0 0 255 255 0 0 255 255 0 
0 255 254 0 0 255 254 0 0 
255 255 0 0 255 254 0 0 255 
254 0 0 255 254 0 0 255 254 
0 0 255 255 0 0 255 255 0 
0 255 255 0 0 255 255 0 0 
255 255 0 0 255 255 0 0 255 
255 0 0 255 255 0 0 255 255 
0 0 255 255 0 0 255 255 0 
0 255 255 0 0 255 255 0 0 
255 255 0 0 255 255 0 0 255 
255 0 0 255 255 0 0 255 255 
0 0 255 255 0 0 255 255 0 
0 255 255 0 0 255 255 0 0 
255 255 0 0 255 255 0 0 255 
255 0 0 255 255 0 0 255 255 
0 0 255 255 0 0 255 254 0 
0 255 254 0 0 255 255 0 0 
255 255 0 0 255 255 0 0 255 
255 0 0 255 255 0 0 255 255 
0 0 255 255 0 0 255 255 0 
0 255 255 0 0 255 255 0 0 
255 255 0 0 255 255 0 0 255 
255 0 0 255 255 0 0 255 255 
0 0 255 255 0 0 255 255 0 
0 255 255 0 0 255 255 0 0 
255 255 0 0 255 254 0 0 255 
254 0 0 255 255 0 0 255 255 
0 0 255 255 0 0 255 255 0 
0 255 255 0 0 255 255 0 0 
255 255 0 0 255 255 0 0 255 
255 0 0 255 255 0 0 255 255 
0 0 255 255 0 0 255 255 0 
0 255 255 0 0 255 255 0 0 
255 255 0 0 255 255 0 0 255 
255 0 0 255 255 0 0 255 255 
0 0 255 255 0 0 255 255 0 
0 255 255 0 0 255 255 0 0 
255 255 0 0 255 255 0 0 255 
255 0 0 255 255 0 0 255 255 
0 0 255 255 0 0 255 255 0 
0 255 254 0 0 255 254 0 0 
255 255 0 0 255 255 0 0 255 
255 0 0 255 255 0 0 255 255 
0 0 255 255 0 0 255 255 0 
0 255 255 0 0 255 255 0 0 
255 255 0 0 255 255 0 0 255 
255 0 0 255 255 0 0 255 255 
0 0 255 255 0 0 255 255 0 
0 255 255 0 0 255 255 0 0 
255 255 0 0 255 255 0 0 255 
254 0 0 255 254 0 0 255 255 
0 0 255 255 0 0 255 255 0 
0 255 255 0 0 255 255 0 0 
255 255 0 0 255 255 0 0 255 
255 0 0 255 255 0 0 255 255 
0 0 255 254 0 0 255 254 0 
0 255 255 0 0 255 255 0 0 
255 255 0 0 255 255 0 0 255 
255 0 0 255 255 0 0 255 255 
0 0 255 255 0 0 255 254 0 
0 255 254 0 0 255 255 0 0 
255 255 0 0 255 255 0 0 255 
255 0 0 255 255 0 0 255 255 
0 0 255 255 0 0 255 255 0 
0 255 255 0 0 255 254 0 0 
255 254 0 0 255 255 0 0 255 
255 0 0 255 255 0 0 255 255 
0 0 255 255 0 0 255 255 0 
0 255 255 0 0 255 255 0 0 
255 255 0 0 255 255 0 0 255 
254 0 0 255 254 0 0 255 255 
0 0 255 255 0 0 255 255 0 
0 255 255 0 0 255 255 0 0 
255 255 0 0 255 255 0 0 255 
255 0 0 255 254 0 0 255 254 
0 0 255 254 0 0 255 255 0 
0 255 255 0 0 255 255 0 0 
255 255 0 0 255 255 0 0 255 
255 0 0 255 255 0 0 255 255 
0 0 255 255 0 0 255 255 0 
0 255 255 0 0 255 255 0 0 
255 255 0 0 255 255 0 0 255 
255 0 0 255 255 0 0 255 255 
0 0 255 255 0 0 255 255 0 
0 255 254 0 0 255 254 0 0 
255 255 0 0 255 255 0 0 255 
255 0 0 255 255 0 0 255 255 
0 0 255 255 0 0 255 255 0 
0 255 255 0 0 255 255 0 0 
255 255 0 0 255 255 0 0 255 
255 0 0 255 255 0 0 255 255 
0 0 255 255 0 0 255 255 0 
0 255 255 0 0 255 255 0 0 
255 255 0 0 255 255 0 0 255 
255 0 0 255 255 0 0 255 255 
0 0 255 255 0 0 255 255 0 
0 255 255 0 0 255 255 0 0 
255 255 0 0 255 255 0 0 255 
255 0 0 255 255 0 0 255 255 
0 0 255 255 0 0 255 255 0 
0 255 255 0 0 255 255 0 0 
255 255 0 0 255 255 0 0 255 
255 0 0 255 255 0 0 255 255 
0 0 255 255 0 0 255 255 0 
0 255 255 0 0 255 255 0 0 
255 255 0 0 255 255 0 0 255 
255 0 0 255 255 0 0 255 255 
0 0 255 255 0 0 255 255 0 
0 255 255 0 0 255 254 0 0 
255 254 0 0 255 255 0 0 255 
255 0 0 255 255 0 0 255 255 
0 0 255 255 0 0 255 255 0 
0 255 255 0 0 255 255 0 0 
255 255 0 0 255 255 0 0 255 
255 0 0 255 255 0 0 255 255 
0 0 255 255 0 0 255 255 0 
0 255 255 0 0 255 255 0 0 
255 255 0 0 255 255 0 0 255 
255 0 0 255 255 0 0 255 255 
0 0 255 255 0 0 255 255 0 
0 255 255 0 0 255 255 0 0 
255 255 0 0 255 255 0 0 255 
255 0 0 255 255 0 0 255 255 
0 0 255 255 0 0 255 254 0 
0 255 254 0 0 255 255 0 0 
255 255 0 0 255 255 0 0 255 
255 0 0 255 255 0 0 255 255 
0 0 255 255 0 0 255 255 0 
0 255 255 0 0 255 254 0 0 
255 254 0 0 255 255 0 0 255 
255 0 0 255 255 0 0 255 255 
0 0 255 255 0 0 255 255 0 
0 255 255 0 0 255 255 0 0 
255 255 0 0 255 255 0 0 255 
255 0 0 255 255 0 0 255 255 
0 0 255 255 0 0 255 255 0 
0 255 255 0 0 255 255 0 0 
255 255 0 0 255 255 0 0 255 
255 0 0 255 255 0 0 255 255 
0 0 255 255 0 0 255 255 0 
0 255 255 0 0 255 255 0 0 
255 255 0 0 255 255 0 0 255 
255 0 0 255 255 0 0 255 255 
0 0 255 255 0 0 255 255 0 
0 255 255 0 0 255 255 0 0 
255 255 0 0 255 255 0 0 255 
255 0 0 255 255 0 0 255 255 
0 0 255 255 0 0 255 254 0 
0 255 254 0 0 255 255 0 0 
255 255 0 0 255 255 0 0 255 
255 0 0 255 255 0 0 255 255 
0 0 255 255 0 0 255 255 0 
0 255 255 0 0 255 255 0 0 
255 255 0 0 255 255 0 0 255 
255 0 0 255 255 0 0 255 255 
0 0 255 255 0 0 255 255 0 
0 255 255 0 0 255 255 0 0 
255 255 0 0 255 255 0 0 255 
255 0 0 255 255 0 0 255 255 
0 0 255 255 0 0 255 255 0 
0 255 255 0 0 255 255 0 0 
255 255 0 0 255 255 0 0 255 
255 0 0 255 255 0 0 255 255 
0 0 255 255 0 0 255 255 0 
0 255 255 0 0 255 255 0 0 
255 255 0 0 255 255 0 0 255 
255 0 0 255 255 0 0 255 255 
0 0 255 255 0 0 255 255 0 
0 255 255 0 0 255 255 0 0 
255 255 0 0 255 255 0 0 255 
255 0 0 255 255 0 0 255 255 
0 0 255 255 0 0 255 255 0 
0 255 255 0 0 255 254 0 0 
255 254 0 0 255 255 0 0 255 
255 0 0 255 255 0 0 255 255 
0 0 255 255 0 0 255 255 0 
0 255 255 0 0 255 255 0 0 
255 254 0 0 255 254 0 0 255 
255 0 0 255 255 0 0 255 255 
0 0 255 255 0 0 255 255 0 
0 255 255 0 0 255 255 0 0 
255 255 0 0 255 255 0 0 255 
255 0 0 255 255 0 0 255 255 
0 0 255 255 0 0 255 255 0 
0 255 255 0 0 255 255 0 0 
255 255 0 0 255 255 0 0 255 
255 0 0 255 255 0 0 255 255 
0 0 255 255 0 0 255 255 0 
0 255 255 0 0 255 255 0 0 
255 255 0 0 255 255 0 0 255 
255 0 0 255 255 0 0 255 255 
0 0 255 255 0 0 255 255 0 
0 255 254 0 0 255 254 0 0 
255 255 0 0 255 255 0 0 255 
255 0 0 255 255 0 0 255 255 
0 0 255 255 0 0 255 255 0 
0 255 255 0 0 255 255 0 0 
255 255 0 0 255 255 0 0 255 
255 0 0 255 255 0 0 255 255 
0 0 255 255 0 0 255 255 0 
0 255 255 0 0 255 255 0 0 
255 255 0 0 255 255 0 0 255 
255 0 0 255 255 0 0 255 255 
0 0 255 255 0 0 255 255 0 
0 255 255 0 0 255 255 0 0 
255 255 0 0 255 255 0 0 255 
255 0 0 255 255 0 0 255 255 
0 0 255 255 0 0 255 255 0 
0 255 255 0 0 255 255 0 0 
255 255 0 0 255 255 0 0 255 
255 0 0 255 255 0 0 255 255 
0 0 255 254 0 0 255 254 0 
0 255 255 0 0 255 255 0 0 
255 255 0 0 255 255 0 0 255 
255 0 0 255 255 0 0 255 255 
0 0 255 255 0 0 255 255 0 
0 255 254 0 0 255 254 0 0 
255 255 0 0 255 255 0 0 255 
255 0 0 255 255 0 0 255 255 
0 0 255 255 0 0 255 255 0 
0 255 255 0 0 255 255 0 0 
255 254 0 0 255 254 0 0 255 
254 0 0 255 255 0 0 255 255 
0 0 255 255 0 0 255 255 0 
0 255 255 0 0 255 255 0 0 
255 255 0 0 255 255 0 0 255 
255 0 0 255 254 0 0 255 254 
0 0 255 255 0 0 255 255 0 
0 255 255 0 0 255 255 0 0 
255 255 0 0 255 255 0 0 255 
255 0 0 255 255 0 0 255 254 
0 0 255 254 0 0 255 255 0 
0 255 255 0 0 255 255 0 0 
255 255 0 0 255 255 0 0 255 
255 0 0 255 255 0 0 255 255 
0 0 255 255 0 0 255 255 0 
0 255 255 0 0 255 255 0 0 
255 255 0 0 255 255 0 0 255 
255 0 0 255 255 0 0 255 255 
0 0 255 255 0 0 255 255 0 
0 255 255 0 0 255 254 0 0 
255 254 0 0 255 255 0 0 255 
255 0 0 255 255 0 0 255 255 
0 0 255 255 0 0 255 255 0 
0 255 255 0 0 255 255 0 0 
255 255 0 0 255 254 0 0 255 
254 0 0 255 255 0 0 255 255 
0 0 255 255 0 0 255 255 0 
0 255 255 0 0 255 255 0 0 
255 255 0 0 255 255 0 0 255 
255 0 0 255 255 0 0 255 255 
0 0 255 255 0 0 255 255 0 
0 255 255 0 0 255 255 0 0 
255 255 0 0 255 255 0 0 255 
255 0 0 255 255 0 0 255 255 
0 0 255 255 0 0 255 255 0 
0 255 255 0 0 255 255 0 0 
255 255 0 0 255 255 0 0 255 
255 0 0 255 255 0 0 255 255 
0 0 255 255 0 0 255 255 0 
0 255 255 0 0 255 255 0 0 
255 255 0 0 255 255 0 0 255 
255 0 0 255 255 0 0 255 255 
0 0 255 255 0 0 255 255 0 
0 255 255 0 0 255 255 0 0 
255 254 0 0 255 254 0 0 255 
255 0 0 255 255 0 0 255 255 
0 0 255 255 0 0 255 255 0 
0 255 255 0 0 255 255 0 0 
255 255 0 0 255 255 0 0 255 
255 0 0 255 255 0 0 255 255 
0 0 255 255 0 0 255 255 0 
0 255 255 0 0 255 255 0 0 
255 255 0 0 255 255 0 0 255 
255 0 0 255 255 0 0 255 254 
0 0 255 254 0 0 255 255 0 
0 255 255 0 0 255 255 0 0 
255 255 0 0 255 255 0 0 255 
255 0 0 255 255 0 0 255 255 
0 0 255 255 0 0 255 255 0 
0 255 255 0 0 255 255 0 0 
255 255 0 0 255 255 0 0 255 
255 0 0 255 255 0 0 255 255 
0 0 255 255 0 0 255 255 0 
0 255 255 0 0 255 255 0 0 
255 255 0 0 255 255 0 0 255 
255 0 0 255 255 0 0 255 255 
0 0 255 255 0 0 255 255 0 
0 255 255 0 0 255 255 0 0 
255 255 0 0 255 255 0 0 255 
254 0 0 255 254 0 0 255 255 
0 0 255 255 0 0 255 255 0 
0 255 255 0 0 255 255 0 0 
255 255 0 0 255 255 0 0 255 
255 0 0 255 255 0 0 255 255 
0 0 255 255 0 0 255 255 0 
0 255 255 0 0 255 255 0 0 
255 255 0 0 255 255 0 0 255 
255 0 0 255 255 0 0 255 255 
0 0 255 255 0 0 255 255 0 
0 255 255 0 0 255 255 0 0 
255 255 0 0 255 255 0 0 255 
255 0 0 255 255 0 0 255 255 
0 0 255 255 0 0 255 255 0 
0 255 255 0 0 255 254 0 0 
255 254 0 0 255 255 0 0 255 
255 0 0 255 255 0 0 255 255 
0 0 255 255 0 0 255 255 0 
0 255 255 0 0 255 255 0 0 
255 255 0 0 255 255 0 0 255 
255 0 0 255 255 0 0 255 255 
0 0 255 255 0 0 255 255 0 
0 255 255 0 0 255 255 0 0 
255 254 0 0 255 254 0 0 255 
255 0 0 255 254 0 0 255 254 
0 0 255 254 0 0 255 254 0 
0 255 255 0 0 255 255 0 0 
255 255 0 0 255 255 0 0 255 
255 0 0 255 255 0 0 255 255 
0 0 255 255 0 0 255 255 0 
0 255 255 0 0 255 255 0 0 
255 255 0 0 255 255 0 0 255 
255 0 0 255 255 0 0 255 255 
0 0 255 255 0 0 255 255 0 
0 255 255 0 0 255 255 0 0 
255 255 0 0 255 255 0 0 255 
255 0 0 255 255 0 0 255 255 
0 0 255 255 0 0 255 255 0 
0 255 255 0 0 255 255 0 0 
255 255 0 0 255 255 0 0 255 
255 0 0 255 255 0 0 255 255 
0 0 255 255 0 0 255 255 0 
0 255 255 0 0 255 255 0 0 
255 255 0 0 255 255 0 0 255 
255 0 0 255 255 0 0 255 255 
0 0 255 255 0 0 255 255 0 
0 255 255 0 0 255 255 0 0 
255 255 0 0 255 255 0 0 255 
255 0 0 255 255 0 0 255 255 
0 0 255 255 0 0 255 255 0 
0 255 255 0 0 255 255 0 0 
255 255 0 0 255 255 0 0 255 
255 0 0 255 255 0 0 255 255 
0 0 255 255 0 0 255 254 0 
0 255 254 0 0 255 255 0 0 
255 255 0 0 255 255 0 0 255 
255 0 0 255 255 0 0 255 255 
0 0 255 255 0 0 255 255 0 
0 255 255 0 0 255 255 0 0 
255 255 0 0 255 255 0 0 255 
255 0 0 255 255 0 0 255 255 
0 0 255 255 0 0 255 255 0 
0 255 255 0 0 255 255 0 0 
255 255 0 0 255 255 0 0 255 
255 0 0 255 255 0 0 255 255 
0 0 255 255 0 0 255 255 0 
0 255 255 0 0 255 255 0 0 
255 255 0 0 255 255 0 0 255 
255 0 0 255 255 0 0 255 255 
0 0 255 255 0 0 255 255 0 
0 255 255 0 0 255 255 0 0 
255 255 0 0 255 255 0 0 255 
255 0 0 255 255 0 0 255 255 
0 0 255 255 0 0 255 255 0 
0 255 255 0 0 255 255 0 0 
255 255 0 0 255 255 0 0 255 
255 0 0 255 255 0 0 255 255 
0 0 255 255 0 0 255 255 0 
0 255 255 0 0 255 255 0 0 
255 255 0 0 255 255 0 0 255 
255 0 0 255 255 0 0 255 
